#LAMMPS data file via write_data, version 2 Apr 2025, timestep = 50000, units = metal

720 atoms
4 atom types
1 bond types
1 angle types

2 extra bond per atom
1 extra angle per atom
2 extra special per atom

-22.470320800269317 22.470320800269317 xlo xhi
-8.579178758211475 8.579178758211475 ylo yhi
-8.491043517346204 8.491043517346204 zlo zhi

Atom Type Labels

1 Si
2 O
3 OW
4 HW

Bond Type Labels

1 OW-HW

Angle Type Labels

1 HW-OW-HW

Masses

1 28.0855
2 15.9994
3 15.9994
4 1.008

Atoms # full

494 0 2 0 -18.616775358543315 -4.933411197921618 -6.362660405016377 0 0 0
154 0 1 0 -18.37966214446967 -6.506913347531253 -6.633184436368132 0 1 0
499 0 2 0 -19.32322190310523 -4.78196805556571 -3.0882509883505342 0 0 0
510 0 2 0 -19.785621074187844 -7.318964572885666 -6.531452785939805 0 1 0
27 0 1 0 -19.81800645525745 -3.8142853184725762 -6.261255123890343 0 0 1
241 0 2 0 -17.452427235421485 -7.2232217026604575 -5.540668300867279 0 0 1
708 0 2 0 -20.849380127182663 -8.203534714876223 -4.2972488133186575 0 1 0
473 0 2 0 -21.169020694227335 -4.52776832350753 -6.018551813930582 1 2 1
68 0 1 0 -21.12463399354063 -7.931914725372447 -5.875376968767791 1 1 1
523 0 2 0 -17.771841644524322 -6.877409214488186 -8.06072276945896 1 1 1
692 0 2 0 -16.717287607935194 -4.590234170340272 -3.974886616920994 0 0 1
34 0 1 0 -16.148742621294986 -7.993242908156622 -5.161253251474912 0 1 0
481 0 2 0 -18.527416835010207 -7.920866176202587 -3.216938715485788 0 1 0
442 0 2 0 -15.843865927785306 -7.58191409304572 -3.536213412377716 0 0 0
222 0 1 0 -15.437892861870488 -3.7867158410786548 -4.561936180323344 0 0 1
344 0 2 0 -14.779354013715652 -4.5480970926403295 -5.781466796870494 0 1 1
37 0 1 0 -13.782659111559882 -7.299410777672651 -7.2477646983003 0 0 0
555 0 2 0 -14.077649108735176 -5.843265499953233 -7.850475734982215 0 0 0
558 0 2 0 -14.207398533094693 -3.6631589142821053 -3.4870942352349497 0 1 1
562 0 2 0 -12.445747946819466 -4.184825103279525 -7.0072374042022565 0 0 1
233 0 1 0 -14.024695855718171 -4.365485398604041 -7.178634712723875 0 1 0
466 0 2 0 -13.254126226394845 -7.3536065071306025 -3.9472322653464467 0 1 1
573 0 2 0 -12.532569960674978 -7.557242880736551 -6.35344531897932 0 1 -1
557 0 2 0 -15.145129904351595 -7.5094121055389245 -6.313821312937945 1 1 0
95 0 1 0 -11.277533613668496 -3.6833263238724427 -8.022540280250782 1 0 1
107 0 1 0 -12.630710264571851 -8.492388221300489 -5.00296844838628 0 1 0
415 0 2 0 -9.936649240720792 -4.506509619797121 -7.553136080953911 0 0 2
341 0 2 0 -9.798042561853428 -4.278014276633678 -3.570649058073335 0 1 -1
492 0 2 0 -9.982614269689398 -7.950941054495064 -7.954478011329138 0 0 2
649 0 2 0 -14.555953562777214 -2.92090416089407 -7.803273075739617 0 -1 0
359 0 2 0 -13.65017458934933 -8.377081812938084 8.46355425740142 0 0 0
390 0 2 0 -8.00377951562422 -6.199165110410156 -3.351807635350373 0 0 0
163 0 1 0 -8.035144102691017 -7.611251223791572 -4.106355259543637 0 0 0
625 0 2 0 -6.550485887607957 -8.072464843482429 -4.539309233412164 0 0 0
669 0 2 0 -7.496941040941614 -4.593588028619566 -6.261509596852272 0 1 0
275 0 2 0 -8.95257687030225 -7.525167554224038 -5.444274507457118 0 -1 0
12 0 1 0 -8.398408943788846 -3.9045459658326713 -7.492890760324466 0 0 1
159 0 1 0 -5.947761084574296 -4.756659336009804 -6.059661302239501 0 0 1
541 0 2 0 -5.438257576073273 -4.161897291791862 -7.474950140331309 0 0 0
307 0 2 0 -5.564507062004836 -6.309229315179253 -6.025877235356813 0 0 1
31 0 1 0 -5.146348865978766 -7.612042410190442 -5.197880512653363 0 0 0
594 0 2 0 -4.306329443037889 -8.450252545699703 -6.233511982418454 0 0 0
579 0 2 0 -5.0967967995404635 -4.005038686925425 -4.997688073993952 0 0 0
540 0 2 0 -4.404030001051829 -7.164391414379616 -3.8535163190783637 0 -1 0
406 0 2 0 -7.425125769373338 -8.096461578888334 -7.506974468123005 0 0 -1
15 0 1 0 -3.7776544962712357 -8.271889776150553 -7.797407323514038 0 1 0
144 0 1 0 -8.86802960974578 -8.353050912341269 -6.831283279567727 0 1 0
20 0 1 0 8.483699598034441 -5.977429156399772 -5.115916502640658 1 0 0
308 0 2 0 7.760022516551064 -6.955715515221849 -6.311183589898417 0 1 0
60 0 1 0 8.003076627837725 -7.845703915710283 -7.695022993366747 0 2 0
318 0 2 0 7.548933853587574 -5.046684250204166 -4.22333732694785 0 0 -1
248 0 2 0 6.315734116446393 -3.0608426640175512 -2.8294643547073477 0 1 1
519 0 2 0 7.950783341390466 -2.679148900512546 -6.687887648443166 0 0 0
232 0 1 0 7.470610130415686 -4.181050536207905 -2.841839991101481 0 1 0
357 0 2 0 9.388396505855475 -6.8737272901874125 -4.1509212247814435 0 0 -1
322 0 2 0 9.436619381872195 -4.898248294859309 -5.911286499113139 -1 0 0
111 0 1 0 9.473754482725973 -3.3134776246968283 -6.143510859802898 0 1 1
618 0 2 0 9.53274318424084 -7.585225001256005 -8.061198594588685 0 0 0
301 0 2 0 11.895872663538157 -4.673736444260156 -7.9491538465762694 0 1 2
663 0 2 0 14.014896188468718 -6.103384401559489 -7.764373483437778 0 0 -1
646 0 2 0 12.652314806238799 -5.404794141624187 -5.44203965938415 0 1 0
192 0 1 0 13.304248769604925 -5.671766215715457 -4.028917402804013 0 1 0
356 0 2 0 14.217414692980604 -6.978121632767813 -4.2334534878111265 0 0 1
717 0 2 0 14.51748381079129 -4.628745884883393 -3.5072964873874373 0 0 0
414 0 2 0 13.990917305646576 -3.6087897196983594 -6.653563387364521 0 1 2
18 0 1 0 13.173039850084315 -4.920909408913462 -6.936761659700056 0 0 1
101 0 1 0 14.847176899686922 -8.165346859651196 -3.400382491276048 0 1 0
496 0 2 0 12.146838449022596 -7.9350612697320235 -7.4615037079806505 -1 1 0
410 0 2 0 12.201985557412328 -5.78005535669427 -2.879071287667667 -1 1 0
14 0 1 0 11.34749627639524 -3.3114878756142847 8.375735683254435 0 1 0
350 0 2 0 16.555761553238412 -4.567680760263346 -7.952966341118153 0 0 0
404 0 2 0 20.734206901539906 -6.85539314226667 -6.256600835458097 -1 0 0
137 0 1 0 20.532598961053907 -5.325970687484242 -6.621699612823081 0 0 1
682 0 2 0 19.3180814196284 -4.674155022920816 -5.8432436345030405 0 -1 1
103 0 1 0 18.78956602124029 -3.3270400448790163 -5.194599128130487 0 0 0
374 0 2 0 17.51225498057059 -7.095088094036328 -8.076077866395336 -1 0 1
612 0 2 0 17.730804315715368 -6.960806409049573 -5.466619841726638 0 0 0
449 0 2 0 18.71625267886474 -3.554411610881962 -3.5649479075274115 -1 0 1
167 0 1 0 17.541122905195216 -7.015514312467647 -3.9382312730134226 0 0 0
457 0 2 0 17.165684437806625 -5.640137614147864 -3.208738459290349 0 2 0
522 0 2 0 20.46572943650142 -5.048724819154874 -8.2401927259599 0 0 1
563 0 2 0 19.016414858528044 -7.4735364945569565 -3.337673669305879 -1 1 0
235 0 1 0 17.41915837308275 -7.937959758433444 -6.703963240096494 0 1 1
426 0 2 0 17.3639496223256 -3.039628238829006 -5.989350842509562 -1 -1 0
175 0 1 0 17.053434021728016 -3.1315012177215795 -7.597788200950345 0 -1 0
531 0 2 0 16.407998767837803 -8.207838947336878 -3.688072450301499 0 0 0
279 0 2 0 18.539384670810584 -3.1586218371448105 -8.451839317298194 -1 1 0
256 0 2 0 -20.038883818215314 -2.9731885235696787 -7.649906740064312 0 -1 1
441 0 2 0 -19.59409610839328 -2.5833659112900644 -5.116567880575739 1 1 0
187 0 1 0 -19.61514597105761 1.5784386274279143 -4.455798001831928 1 1 0
229 0 1 0 -18.878509734281128 0.8987081796000815 -7.126160439988943 1 0 0
284 0 2 0 -18.742190759305807 -0.49922876637853975 -6.421929490498794 0 -2 0
247 0 2 0 -20.030580724971216 0.020839371129870443 -4.4714485758138665 1 1 1
124 0 1 0 -19.061977093749686 -1.100146769705166 -4.961199889106042 0 0 0
645 0 2 0 -17.701276158692497 -0.7548846678208578 -4.185584068226803 0 0 1
683 0 2 0 -18.747398838874865 1.9514541843275683 -5.842683119589928 1 0 0
580 0 2 0 -20.27524325396461 1.257384423222577 -7.808101790488559 1 1 1
89 0 1 0 -16.124072061854466 -1.0165822266606206 -3.9812855413124337 0 0 1
342 0 2 0 -20.914519704599012 2.390462099679464 -4.642673257122994 0 1 1
259 0 2 0 -15.8302808231003 -2.2802103128800164 -4.900964482899349 0 0 1
366 0 2 0 -18.88194989057212 1.900048004402894 -3.1210192244521204 1 -1 -1
549 0 2 0 -17.604705754246364 0.9744046601179033 -8.083238355246856 0 0 0
497 0 2 0 -15.14415040351826 0.20803582975747936 -4.245217080458016 1 0 1
286 0 2 0 -14.418696986846097 -0.25840481658820735 -6.677498088743249 1 0 1
8 0 1 0 -14.036055620605904 0.6546533272166037 -5.361719290230145 0 -1 0
331 0 2 0 -14.286929081869019 2.260942772905281 -5.395857145140703 0 0 0
136 0 1 0 -14.66308045058148 -1.2872168417528167 -7.9113048296327015 0 0 1
378 0 2 0 -12.485129233150584 0.22176131284810374 -5.03873000067729 1 0 1
617 0 2 0 -11.042519170040677 -2.123626025545133 -7.876289113535485 0 0 0
128 0 1 0 -11.169946063505021 -0.624570534499707 -5.365499002164795 0 0 1
520 0 2 0 -10.93303778245403 -1.9380660986456837 -4.5444344818832185 0 0 0
615 0 2 0 -10.138156182517957 -0.3250898213424147 -6.537084647323005 0 1 1
119 0 1 0 -9.818741818351072 -2.687162269926132 -3.611986990673768 0 -1 1
148 0 1 0 -9.672822339588443 -1.2785884163311279 -7.706590925265003 0 -1 1
671 0 2 0 -4.085760385608161 -2.1221807410043603 -3.4920001908283407 0 0 -1
448 0 2 0 -8.640758649151609 -2.3660150748661675 -7.157373053021311 0 -1 1
126 0 1 0 -7.160740253878792 -1.3146898625979846 -4.0521543083238765 1 -1 0
420 0 2 0 -7.874160054626833 0.05437424721995754 -4.314719919651778 0 0 0
676 0 2 0 -8.112711548208575 2.210538208531723 -5.8109252376009275 0 0 0
132 0 1 0 -7.365275882089119 1.4676408494593929 -4.55306193587309 0 -1 0
324 0 2 0 -5.99725367383515 -1.6438521233667185 -5.117925117375956 0 0 1
114 0 1 0 -4.606568516901255 -2.4439423121102717 -5.0068473057701075 0 1 -1
665 0 2 0 -5.784424858257175 1.5506769712357187 -4.976661467722966 0 -1 0
468 0 2 0 -8.363784822672276 -2.339225331906568 -4.190375908934042 0 -1 0
521 0 2 0 -7.5498394320140125 2.275656511080232 -3.1741584688756843 0 0 -1
482 0 2 0 -3.6084542736196106 -2.1555418955985193 -6.250136315517618 0 0 0
312 0 2 0 -3.434802495852807 2.3076634198636885 -8.21928000282017 0 1 1
686 0 2 0 -2.577242510249256 -0.15020579563553405 -7.567663179271689 0 -1 0
30 0 1 0 -2.5026938535063046 -1.7528586666949781 -7.397758167539533 0 0 0
566 0 2 0 -1.0614829767006597 -2.14984566234605 -6.953373769199196 0 0 1
471 0 2 0 -0.9306460569002439 1.9974932114455974 -7.542403915036378 0 1 0
91 0 1 0 -2.172168355578229 1.2722269306300742 -8.269309096024298 0 0 0
273 0 2 0 8.303879746291667 0.6406193214528688 -6.134229296296041 0 0 1
49 0 1 0 8.180896152823923 0.7720865982050462 -7.668723244595346 0 0 0
483 0 2 0 7.651544970609049 -0.5886083475927002 -8.269490058982397 0 0 0
118 0 1 0 7.80611688273061 -2.1265146697331163 -8.154700952551664 0 0 1
589 0 2 0 8.869008156825029 2.2885190221871987 -3.965266372537351 0 1 0
551 0 2 0 6.6842523420082 0.11809562302356902 -3.038461364434772 0 1 0
565 0 2 0 8.470418902316172 2.17197413985814 -8.278603657133246 0 -1 0
614 0 2 0 10.371578796083078 -2.7610689973542497 -7.365762843728284 0 2 2
351 0 2 0 10.096039543049894 -2.6357142238845377 -4.811029283075176 0 0 0
90 0 1 0 9.377873892625644 1.1905154542783745 -5.0265763883936465 0 -1 0
469 0 2 0 10.146097788776249 -0.1263679924054415 -4.289406101595103 0 0 0
135 0 1 0 10.926811358143617 -1.4982617363897246 -3.9381160658465575 -1 0 1
640 0 2 0 10.438410469784895 1.8382252094386384 -6.022644987229689 0 1 0
693 0 2 0 12.498863797628061 -1.508846430510978 -4.4615685816889 0 0 0
321 0 2 0 14.240934695298947 0.1277920399101724 -3.403582889238507 -1 2 1
52 0 1 0 14.090991118586217 -1.0974385554793225 -4.443553609282214 -1 0 0
93 0 1 0 13.53167627376039 1.5815049725213548 -3.365871583195946 0 1 0
413 0 2 0 12.429296893596948 1.4357000743305655 -4.570293548044985 0 0 1
198 0 1 0 11.933810603586267 1.3217920937701528 -6.114390596908258 0 0 1
277 0 2 0 11.895592069275935 -0.001894799292854188 -7.012339422383046 0 0 1
502 0 2 0 14.694885468923466 -0.6217952596802068 -5.925507619536474 -1 1 0
240 0 1 0 15.258240838322337 -0.5665204683491964 -7.477739626902055 0 1 1
429 0 2 0 12.85804309847137 2.373914196941991 -6.917712066928861 0 0 1
316 0 2 0 14.708521256826046 2.593782821616296 -3.855766306250472 0 0 0
329 0 2 0 15.008260939191494 -2.234313452127674 -3.8005442431930128 0 0 -1
205 0 1 0 12.445113718322112 -0.6069436352663997 -8.392202236002333 0 1 0
7 0 1 0 21.390687615300912 2.067220069750082 -8.23212847405446 0 0 0
554 0 2 0 16.398089257129662 0.593764702905176 -7.594218853849091 -1 1 1
326 0 2 0 16.09120186204003 -1.8800101787083108 -7.893846391478963 0 0 1
47 0 1 0 17.57961128247291 1.1722356456412193 -6.686610084894365 0 0 0
394 0 2 0 17.897156504564308 2.6899474872793103 -6.941797547834114 0 0 0
528 0 2 0 19.620787527288535 -1.9571374802103625 -5.493568333155939 -1 1 0
623 0 2 0 20.50248659966733 0.7099815055941168 -5.809774144961389 0 0 0
430 0 2 0 18.117728449664213 0.19895870650787373 -5.57140761763883 0 0 0
38 0 1 0 19.598463125975236 -0.4430688449704778 -5.126713818044918 0 0 0
340 0 2 0 19.981356980200722 -0.33266952630933133 -3.529282355011482 -1 0 1
36 0 1 0 20.722757187464254 2.3035493092885275 -5.387872534633927 -1 0 0
592 0 2 0 20.921452491904155 2.8201558144261956 -6.876242813539799 0 0 0
515 0 2 0 -16.53079021700951 3.29238182401296 -6.120116288898274 1 0 2
371 0 2 0 -18.4146112912347 3.6034290039181407 -7.892552288307386 1 1 1
530 0 2 0 -19.181910810855957 6.783404646191508 -4.113013339176544 0 0 -1
184 0 1 0 -19.71162023000955 8.107470321116766 -3.3342217909617062 0 -1 0
83 0 1 0 -18.099660302512582 3.4338435927090725 -6.317764846619111 1 -1 0
379 0 2 0 -18.7310327844317 4.488146794453206 -5.263896570096586 1 0 0
170 0 1 0 -19.740716900746314 5.3071110350316975 -4.333763383605434 0 -1 0
353 0 2 0 -20.69501888612389 5.466899985161369 -7.782207328201396 1 0 1
383 0 2 0 -15.966566529138474 3.4526718004334995 -3.5124818254338876 0 0 1
403 0 2 0 -21.143211481780796 5.436235812673132 -5.156621083222349 1 0 1
368 0 2 0 -16.09236024185023 7.44299397566807 -5.2497154983917484 0 0 1
280 0 2 0 -20.09357033533191 4.622203249379133 -2.895600857001389 1 0 -1
310 0 2 0 -21.467251546325457 7.674784215922822 -6.5521620924732975 0 -1 1
57 0 1 0 21.388436838974535 6.051064796784637 -6.544952110452427 0 0 1
190 0 1 0 -15.360936859034018 3.43634720164604 -5.048734164156447 1 1 1
525 0 2 0 -14.844676796931068 5.022791650909893 -5.053383418425883 1 0 1
354 0 2 0 -15.124622312690484 6.171291861869159 -7.356011200524794 1 -1 1
474 0 2 0 -13.613951732883585 7.34786881238626 -5.325954647153832 0 0 -1
201 0 1 0 -14.885201014753644 6.478357683684701 -5.74934666827429 0 0 1
362 0 2 0 -12.086783069468702 5.288808178171562 -3.340710440170728 0 0 0
504 0 2 0 -11.461301092726515 7.764230975509898 -4.182663687941692 1 0 0
215 0 1 0 -11.08570906346677 6.200966615949197 -4.147471855617091 0 0 0
339 0 2 0 -10.959795442506271 5.694293990493318 -5.6962225827332755 1 0 0
387 0 2 0 -10.16475786770986 5.980137136568814 -8.332549418487023 0 0 0
127 0 1 0 -9.809600758922343 5.802875459392036 -6.795780934606889 0 -1 0
400 0 2 0 -9.6014759944827 6.101672067743797 -3.4400700630443133 0 -1 -1
578 0 2 0 -8.533006207232793 8.396938091675993 -2.9834010023870903 0 -1 0
685 0 2 0 -9.07748346528603 4.430686798799082 -6.830635543565227 0 -1 0
289 0 2 0 -8.978541342059533 7.1082931830222655 -6.41965257422242 0 0 0
146 0 1 0 -7.830003532555132 3.7071073621092427 -6.213954742175571 0 1 0
688 0 2 0 -7.483896790429613 4.572219493237734 -4.871150676478184 0 -1 0
283 0 2 0 -6.827964277247512 6.402914404249508 -3.2559055691228895 0 0 -1
393 0 2 0 -6.48364588409974 3.9231306400462422 -7.079894846262142 0 0 0
452 0 2 0 -5.279388824053353 5.542527966881776 -5.408011923209606 0 0 0
115 0 1 0 -5.463656055118236 5.2651769527816565 -7.006942099935851 0 -2 0
19 0 1 0 -6.162222108504874 5.162423135383747 -4.158532163844218 0 0 0
332 0 2 0 -6.320441727638427 6.469025135117951 -7.535093979545566 0 -1 0
574 0 2 0 -5.559519945186198 4.032310966788707 -3.1641197792368363 -1 0 0
24 0 1 0 -6.546792720013585 7.896265048443729 -8.285531986440434 0 -1 0
352 0 2 0 -4.100273136076396 4.924272954623012 -7.7455019612070855 0 0 0
25 0 1 0 -3.5612458386859522 3.78552988066998 8.293619239707668 0 0 -1
290 0 2 0 -2.5102642372659894 7.88406961942235 -8.04842152736825 0 0 1
407 0 2 0 7.962873991809364 7.5483965488896505 -7.464755639527662 0 -1 0
402 0 2 0 7.143286175150404 5.701367092234337 -4.425882572563405 0 0 0
80 0 1 0 8.710527016301548 5.9457767619102935 -4.358960923689313 0 0 1
62 0 1 0 9.101732840994405 6.257956127702451 -7.436690562859816 0 0 0
401 0 2 0 9.308217046216946 5.861617846093047 -5.879413795162474 0 0 0
309 0 2 0 9.04921144108745 7.442280224206149 -3.8818277981416323 0 0 0
193 0 1 0 9.979049358822557 -8.325888789306878 -4.337188883223276 0 1 0
185 0 1 0 9.064391475664237 3.3395220538377313 -2.8157243610414735 0 0 0
577 0 2 0 9.444407969001233 4.814413306075268 -3.4589992561563667 0 -1 -1
182 0 1 0 10.663331125653514 -8.514813704567347 -7.3587247212508275 0 0 1
467 0 2 0 10.398623101701638 7.084756676811207 -7.920396693406859 0 0 1
628 0 2 0 10.190552398586043 -8.46608986765698 -5.894331121847304 0 1 0
463 0 2 0 11.486969401187224 8.472305521803628 -3.830428763925931 0 -1 1
553 0 2 0 14.056207587619134 7.564975967501068 -3.868112820416564 0 -1 1
274 0 2 0 14.55704645158793 6.25341020816259 -7.038087328307356 0 0 1
130 0 1 0 15.021602071741043 3.9258234366034124 -4.741604359900631 0 -1 1
260 0 2 0 12.39904544850284 6.747735462228965 -5.660529897575776 -1 0 0
50 0 1 0 13.239772566807254 5.608550793127103 -6.382999955350783 0 0 0
601 0 2 0 13.64474185964098 4.585788804415939 -5.206356836011293 -1 0 1
234 0 1 0 12.547706736012408 7.263388721214309 -4.111728605271267 0 0 1
61 0 1 0 15.266149522689197 7.532514696768567 -7.769687196051242 0 0 1
349 0 2 0 12.439329255757634 4.860458428790439 -7.494686548947154 0 0 1
28 0 1 0 12.458789067439938 3.3689752630170364 -8.122916902674165 0 0 1
272 0 2 0 12.098134768627617 6.099042675519634 -3.0997977765867963 0 0 1
691 0 2 0 15.956224881644452 8.489579813937214 -6.695418111029403 -1 -1 0
604 0 2 0 15.6386194589183 3.546113543236121 -6.199956303226193 0 -1 0
411 0 2 0 16.029724943504498 4.809178551725253 -3.83892100798365 0 0 0
81 0 1 0 16.92554695490451 3.9767522889969484 -7.135432440790732 -1 0 1
642 0 2 0 19.64596031483299 3.0153311673922527 -4.460539636783905 -1 0 0
305 0 2 0 18.422088971699075 7.850303006829675 -6.709776137541807 0 -1 1
605 0 2 0 18.793408536863012 6.445302818961869 -4.511887008023981 -1 0 0
346 0 2 0 19.891188456998066 5.701519571000816 -6.805538656093653 -1 0 0
100 0 1 0 18.59821355821721 6.293684181765437 -6.044423312528358 0 -1 1
527 0 2 0 17.425679359203208 5.279045123596594 -6.457446673608566 0 0 1
110 0 1 0 19.33391749272537 3.1995577121424112 -2.910084512675372 -1 0 0
189 0 1 0 -17.798745234287317 -4.718325051421386 -2.7487012066299794 1 1 1
160 0 1 0 -17.121232996209326 -7.553999906614502 -2.454990132906949 1 1 0
454 0 2 0 -17.307498796025193 -6.0958454878792425 -1.9598828780140138 0 -1 0
408 0 2 0 -17.609163142717453 -3.4756610309064584 -1.7637216541789735 1 0 1
82 0 1 0 -18.016642340491234 -3.2625381787616607 -0.28318510145146014 0 0 0
419 0 2 0 -17.9557470586025 -6.300883617585956 1.313807262974679 1 0 -1
177 0 1 0 -19.38935471646813 -5.65692778923125 0.8999495729055393 1 0 0
456 0 2 0 -19.229526038431324 -4.294633302775549 0.07358629942758554 1 0 0
370 0 2 0 -16.764799663908022 -3.603191583608587 0.7082289704875198 0 0 -1
509 0 2 0 -20.403343792159983 -6.7572435847316985 0.26650178864787755 0 1 0
704 0 2 0 -20.074657277552742 -5.167457568666558 2.2448499518369687 1 0 0
73 0 1 0 -17.466490736828213 -7.271842047715973 2.4793522981032154 0 0 0
440 0 2 0 -15.859650569027938 -7.363519120530122 2.3117553003260785 1 0 0
191 0 1 0 -15.529192187249656 -3.613058437325817 1.7539427393568268 1 0 -1
172 0 1 0 -14.344774186062551 -7.1951520555608575 -2.8098384042630693 0 0 0
296 0 2 0 -14.709615423976572 -5.0285036171375594 1.791869229865931 0 -1 0
217 0 1 0 -13.809524804014469 -4.2410918636253525 -2.037541222469433 0 1 1
518 0 2 0 -12.186391948311257 -4.3074948804647795 -1.8497865205311417 0 0 -1
405 0 2 0 -14.335939058148718 -5.782779564018891 -2.0408242035722397 0 0 1
197 0 1 0 -12.293112353261117 -7.3515749981077105 1.1338824220197772 0 0 -1
270 0 2 0 -12.158644243443627 -6.038759668985351 0.20106044297438252 0 0 1
696 0 2 0 -13.177446678493304 -6.95559628065 2.4194531998779976 0 0 0
348 0 2 0 -14.511514589407993 -3.168565056486563 -0.9679669980973387 0 -2 1
532 0 2 0 -10.719342027953031 -7.667102623346211 1.340943776880362 1 0 0
70 0 1 0 -11.199098293997903 -5.019767890520675 -0.780501319414256 0 0 1
672 0 2 0 -10.451545927299291 -3.7717541266332404 -0.08746546964722768 0 1 1
363 0 2 0 -10.06585775860059 -5.784299920148941 -1.6083302551259688 1 0 -1
178 0 1 0 -9.665170199753845 -6.694955291431224 2.111082595240193 0 0 1
424 0 2 0 -13.003833781494672 8.415320048183363 0.5293926369036406 1 -1 0
325 0 2 0 -10.468467429354842 -5.483081918642055 2.679489895121204 1 1 -1
384 0 2 0 -14.091529797755687 -8.313911391211882 -1.7731338551792808 1 0 0
99 0 1 0 -14.629704065236158 -6.407590687917412 2.731093050127905 1 1 0
179 0 1 0 -8.926694298549224 -5.140278679740387 -2.568073307162398 0 0 0
588 0 2 0 -7.76062567979001 -4.27868529909543 -1.7803876308942996 0 0 0
380 0 2 0 -6.506400405922561 -4.626123102868376 0.4857037965181128 0 0 1
176 0 1 0 -6.284903125048414 -4.423807368121556 -1.1096803234315198 0 1 0
129 0 1 0 -6.890811775540392 -5.820317878432865 1.5145079383862239 0 -1 -1
435 0 2 0 -8.357655485086703 -6.321093001242203 1.2405370148472024 0 0 1
335 0 2 0 -5.8564364801345 -7.034370796977671 1.1288799104970852 0 0 0
96 0 1 0 -5.377007798105733 -8.36774031880334 1.936167341913471 0 2 -1
537 0 2 0 -5.4391993776588095 -5.7854671855093 -1.7355831400942172 0 1 0
35 0 1 0 -4.924930063443892 -7.064768798923176 -2.375664563147428 0 1 1
607 0 2 0 -4.759871093264369 -8.478301111316378 -1.607573494615293 0 1 1
632 0 2 0 -5.179196104484351 -3.2570585009358437 -1.375143943203458 0 0 0
477 0 2 0 5.902091107310596 -6.184787788725627 0.5366453197354986 0 0 0
9 0 1 0 6.255096959042394 -4.88567787759766 -0.29062313933788175 0 1 0
267 0 2 0 7.059605345818419 -3.9695092100235847 0.8324467519362688 0 1 0
703 0 2 0 5.017197059342244 -3.947913376947083 -0.8111303544973572 0 0 -1
576 0 2 0 7.099901978959426 -5.1375658500944965 -1.6127541907697331 -1 1 1
701 0 2 0 8.765495788851982 -3.36136453994029 -2.318378460061721 0 -1 1
194 0 1 0 6.925281839545779 -7.338522416313788 0.9368161796954677 0 0 1
461 0 2 0 8.387862187407244 -6.612985454932955 0.6505379346308775 -1 1 1
447 0 2 0 6.943119350969013 -7.496759074808219 2.529525137304372 0 0 0
138 0 1 0 6.996015048034039 -3.700535474912442 2.399697329130186 0 1 -1
109 0 1 0 14.926444012653235 -3.332830420473659 -2.6704897470802553 -1 0 0
33 0 1 0 9.955501637591908 -6.193563570746285 0.808052301695362 0 0 1
684 0 2 0 10.105035677073651 -4.777033175774175 1.5082680446509649 0 1 0
320 0 2 0 10.6036662620064 -5.949396613582704 -0.6665679738818104 0 0 0
213 0 1 0 10.721485044754282 -3.2780532860459655 1.1930484328874194 0 0 0
295 0 2 0 10.800450555956573 -7.346536347383788 1.5543310691187582 0 1 0
396 0 2 0 13.208174813222705 -5.423941810141439 -0.5291406488103698 0 0 0
102 0 1 0 12.038673687288437 -6.236475385792662 -1.3465897918614642 -1 1 0
650 0 2 0 12.306004541359393 -7.785019316130995 -1.1338189384116788 -1 0 0
171 0 1 0 13.485694849883807 -3.839148962647956 -0.13503513393641065 0 1 0
668 0 2 0 14.747272453102902 -3.672363653694294 0.863054326176238 0 0 0
432 0 2 0 12.18309119595456 -3.2881746959663927 0.6189568875521996 0 1 0
246 0 2 0 14.06115987897438 -8.307119100231192 0.7647278838565548 -1 2 1
637 0 2 0 14.659339761101265 -7.9713291065859435 -1.8514638378085042 -1 1 -1
302 0 2 0 13.905224592155612 -3.0963904199609003 -1.4913836545552446 0 0 0
151 0 1 0 17.763505389052263 -4.334893563822573 -2.512704610542629 -1 0 0
458 0 2 0 16.540779128036654 -3.2226568208501343 -2.1059469212840147 0 1 1
139 0 1 0 15.844156720239468 -4.056845305306173 1.965632591437604 0 1 0
262 0 2 0 15.651136821364815 -5.613530585079183 2.402763252115543 -1 -1 -1
438 0 2 0 20.35658322041469 -6.649720259047839 1.5601452364262816 0 0 1
524 0 2 0 18.306619557395045 -4.701929480964122 -1.0761423982919922 0 0 0
87 0 1 0 18.51693437912764 -3.749378848921107 0.20766655360029773 0 0 0
609 0 2 0 19.970200527511935 -3.6961029614404737 0.7444113368573024 0 0 0
648 0 2 0 20.33964777868374 -7.088178408780202 -1.0296829162181398 -1 0 0
17 0 1 0 21.138510646568392 -7.348201583807633 0.3447627640309179 0 1 -1
583 0 2 0 17.37947168622872 -4.039015692770769 1.3440962772922465 0 0 0
40 0 1 0 19.45422383175184 -8.14540240505312 -1.9449553669930637 0 1 0
534 0 2 0 18.04116980984466 -6.796796956868303 2.6384356801321687 0 0 -1
644 0 2 0 15.762982736674914 -8.237370290981307 2.868383474332326 -1 0 0
702 0 2 0 -21.03958199727583 -2.670870841916975 2.1643433378207018 1 0 1
54 0 1 0 -19.3142883346176 1.5243975131125662 -1.5411809568823784 1 0 0
237 0 1 0 -17.611241526716526 -0.41100420529168247 0.1980037122494256 1 0 1
505 0 2 0 -18.099541635219545 0.7912950385952993 -0.7747912469368412 0 -1 0
399 0 2 0 -18.511281614479575 -1.742683490791042 -0.025831844605978205 1 0 0
622 0 2 0 -17.695988725920305 0.018800750134239763 1.723830541940007 0 0 -1
157 0 1 0 -16.67985585285373 0.9687504865450975 2.4865906579059978 1 -1 1
376 0 2 0 -15.967107600579034 -0.7588843599968769 -0.13073989353061677 0 0 0
679 0 2 0 -16.41390087851724 2.1728832311204105 1.5087194558998362 1 0 0
539 0 2 0 -20.594330163525903 0.5340679330697302 -1.6257260369290645 1 0 0
597 0 2 0 -15.921313995698277 -1.5409038002878388 -2.4941666578156347 0 -1 0
656 0 2 0 -21.190634520584037 0.8102833903457753 0.7620409745563066 0 1 1
658 0 2 0 21.418813401516367 2.8176046964094343 2.244455506458534 0 0 0
666 0 2 0 -19.87069711110396 2.997141340335956 -0.9365537099910233 0 -1 1
287 0 2 0 -14.530114015564909 -2.3497729337552604 1.687572964572384 0 0 0
6 0 1 0 -14.998689423741931 -1.5678533999130995 -1.2195961074552697 0 -1 0
660 0 2 0 -13.597201149948251 -0.8010149910891071 -1.378845763614505 0 -1 0
700 0 2 0 -11.941733668302723 1.1951110637811855 -0.6239602383575864 0 0 0
436 0 2 0 -13.236931787707533 -0.19835604367743542 1.1501530851174966 1 0 0
94 0 1 0 -12.485471025712656 -0.27048880735119063 -0.29541069839357625 0 0 0
39 0 1 0 -14.194727174561688 -0.9106168071669503 2.274519807836965 0 0 0
529 0 2 0 -11.31547052717636 -1.3434311354690154 -0.05068683416323694 0 1 0
149 0 1 0 -10.00250488425785 -2.2861715696650506 -0.3947995215963722 0 1 0
397 0 2 0 -9.822086230361638 -2.1106216449104185 -2.093171801929693 1 0 0
76 0 1 0 -12.425002335602278 2.5981427444590572 -0.026552583223704573 0 0 -1
465 0 2 0 -14.053595527213421 2.5052508454838414 0.29930197246886614 1 0 0
298 0 2 0 -8.73075318284206 -1.946242653707893 0.5458852363672708 0 -1 0
211 0 1 0 -8.327583100385155 -1.6145955889829038 2.0451505922640756 0 0 0
304 0 2 0 -7.1914973692556305 -0.5278643087949222 2.2712863412891675 0 0 0
365 0 2 0 -4.740260694333397 0.6637692539914877 2.14539542057212 0 0 0
480 0 2 0 -6.417026596554523 -1.4251801520646454 -2.660649714189498 0 0 0
10 0 1 0 -4.919715411802986 -1.8637076845877631 -2.1666781206547086 0 1 0
647 0 2 0 -4.325399885608061 -0.6848970907815426 -1.2761692244506255 0 0 0
3 0 1 0 -4.149119089510407 0.9114609083896337 -1.366654787884702 0 0 0
626 0 2 0 -5.539479109492564 1.7260454691124831 -1.5924917586750045 0 -1 0
84 0 1 0 -3.416420441316511 1.4630281663126539 1.576584039148747 0 -1 0
364 0 2 0 -3.5207977549370675 1.4270107474210203 -0.008352129885009774 0 -1 -1
445 0 2 0 -3.1111491709649997 1.3027370647607004 -2.5621419565579675 0 1 0
338 0 2 0 -2.147278093427243 0.6462892027395828 2.230959024736414 0 0 0
208 0 1 0 5.345870916006895 -2.676750851766151 -1.6704734556620897 0 1 0
243 0 2 0 5.8361885576436485 -1.369989988132044 -1.0122980982636802 -1 1 0
261 0 2 0 6.971228013367821 1.009642842448832 -0.5835882412901636 0 -1 1
225 0 1 0 6.9653362138529715 -0.2856365424408889 -1.5237764583136153 0 0 -1
513 0 2 0 8.41438082722794 -0.9995148761726762 -1.4282070981506338 0 0 0
715 0 2 0 9.062078572336787 2.2865153852757025 1.7151272679634886 0 0 1
86 0 1 0 7.057755036345238 2.5650829962935386 -0.7569478185805201 0 0 0
293 0 2 0 7.028776726229712 -2.2840946484227436 2.980974623863368 0 0 -1
63 0 1 0 9.090959572649219 1.333164905385189 2.8853087200350007 0 0 0
131 0 1 0 9.500286397013582 -2.187785680943155 -1.4985393259642947 0 0 0
306 0 2 0 9.76379401055965 -2.6667485980800762 0.03116574821675222 0 0 0
699 0 2 0 10.774305108751435 -1.7976291567541596 -2.399617980058352 0 0 0
319 0 2 0 10.664317536779656 -2.471173329170579 2.5763677717840334 0 0 1
610 0 2 0 12.722150044336118 1.844371113395825 -2.027200567637175 0 -1 -1
153 0 1 0 13.559877836522126 0.5129422506699921 2.329300192643368 0 0 1
678 0 2 0 14.47419971342692 0.31417958897911014 1.055000504218139 0 -1 0
336 0 2 0 13.084039924981766 2.0346457744441206 2.4877598585531793 -1 0 0
584 0 2 0 12.21139690770628 -0.38216419439283555 2.1738506550374 -1 0 0
491 0 2 0 11.828229541680066 2.6154726217820663 0.31662599148394577 -1 0 0
697 0 2 0 9.723051242596608 -0.10755297688931797 2.739562153940481 0 0 -1
495 0 2 0 10.23662793072652 2.7798670248644903 -1.8282537547504578 0 0 0
65 0 1 0 11.728172717501089 2.8550495262618103 -1.254842460421802 -1 0 0
202 0 1 0 21.360478118303575 0.010130592036276198 -0.5941292458075562 -1 -1 1
434 0 2 0 21.34060343571317 -1.56576878786617 -0.1437063499722342 -1 0 0
328 0 2 0 16.009916878717533 -0.9879335198221737 -0.5554884302948748 0 1 0
26 0 1 0 16.013498682180142 0.1882716600496348 0.534077343434161 0 0 -1