LAMMPS data file via write_data, version 2 Apr 2025, timestep = 971, units = metal

720 atoms
2 atom types

-18 18 xlo xhi
-9 9 ylo yhi
-9 9 zlo zhi

Atom Type Labels

1 Si
2 O

Masses

1 28.0855
2 15.9994

Atoms # full

73 0 1 0 15.71661334058821 -4.728491561942236 6.25353625978916 -1 0 -1
74 0 1 0 -11.299725228959943 -7.363142329381408 -3.649147998670309 0 0 0
105 0 1 0 -12.999538511067481 -2.9834978198519053 -7.780952361491934 0 0 0
170 0 1 0 -13.622653663544368 -3.1338788687611285 -4.822375827890073 0 0 0
195 0 1 0 -8.721484899571132 -5.606507424360505 -5.015667594391529 0 0 0
260 0 2 0 -12.634917776772944 -1.5533830845211316 -3.857754762382075 0 0 0
269 0 2 0 -14.595455486168383 -8.33688925002826 -7.800928149307806 0 0 0
331 0 2 0 -11.325354778059534 -2.3019150630331233 -0.5429754478416337 0 0 0
345 0 2 0 16.659287833053373 -6.230894653326875 -4.908975334833027 -1 0 0
386 0 2 0 -16.66525890338958 7.482834143000202 -7.330541692877818 0 -1 0
474 0 2 0 -17.49692601214042 2.2536503727128867 -7.147214128938374 0 0 0
594 0 2 0 -14.963156276101325 -4.048384971938315 -6.427439502034055 0 0 0
613 0 2 0 -12.987923132964916 -4.592554700372083 -4.221191273943799 0 0 0
645 0 2 0 -12.666000700318847 -8.080257457623276 -4.197629849314059 0 0 0
689 0 2 0 -11.381623811137587 -6.57950106601568 6.945128125685781 0 0 -1
691 0 2 0 12.790313807393511 5.343559536177957 7.745567845438613 -1 -1 -1
707 0 2 0 -14.105271427988562 0.2681138826965537 -4.235412744574921 0 0 0
6 0 1 0 -10.351522587865698 6.960828369352432 -5.816438182517584 0 -1 0
37 0 1 0 -8.680235561174877 -5.686750425445066 8.179423726678504 0 0 -1
59 0 1 0 -9.248079253262308 -3.088663494318588 -3.888237207996194 0 0 0
98 0 1 0 -10.19281796089133 -3.8715030052635186 -8.128755567467168 0 0 0
127 0 1 0 -5.957373044296894 -6.165210030284047 -4.805998235803197 0 0 0
202 0 1 0 -8.45183412291735 4.90845646837818 -1.1860967054521623 0 -1 0
226 0 1 0 -4.578056151754 8.990197963869162 8.40199285530388 0 -1 -1
318 0 2 0 -9.157717655354222 -4.6761157194463 -3.8611797088759587 0 0 0
366 0 2 0 -4.608246661950915 -7.740449888037858 6.535183543556755 0 0 -1
407 0 2 0 -7.338424418709357 -6.433079899963431 -4.941308692862524 0 0 0
423 0 2 0 -8.60914222221721 8.894282492854321 6.693343124829207 0 -1 -1
454 0 2 0 -4.144599730438694 3.7303818121864807 -5.778066118543596 0 -1 0
505 0 2 0 -9.041919948427209 7.01067520912889 -4.778871606757028 0 -1 0
685 0 2 0 -5.523689201510356 -3.7104665058124606 -8.224885384539851 0 0 0
31 0 1 0 -7.886380536704141 -1.1620071713001028 -6.278598165890929 0 0 0
84 0 1 0 -4.070157362015223 -7.068796032346975 -0.8462932960828886 0 0 0
163 0 1 0 -5.912751698796843 -5.283134638907087 -8.229651919936693 0 0 0
294 0 2 0 -6.021467849073384 -8.605246460486766 8.782899055766698 0 0 -1
332 0 2 0 -5.055892759514539 8.032966694403276 2.586447780130227 0 -1 -1
333 0 2 0 0.6466366330250887 -5.900993294304973 -5.6872670730856285 0 0 0
402 0 2 0 2.115101841347153 -8.60956622172965 -2.661433799519757 0 0 0
431 0 2 0 -7.334760304090059 -6.946809465645359 -2.221899503508987 0 0 0
482 0 2 0 -3.5731527103561334 -8.227297338283982 0.43852347549466203 0 0 0
487 0 2 0 1.607629645366338 7.131208103544559 -1.948765829899747 0 -1 0
544 0 2 0 -7.762384588791082 8.485949344263304 -2.910441083087342 0 -1 0
547 0 2 0 -1.6755506622401577 8.415778119299231 -6.295411099988199 0 -1 0
636 0 2 0 -2.68378717455528 -5.648596314567705 6.342791895007655 0 0 -1
686 0 2 0 -5.888017335516409 7.340878299856432 -7.195377427045418 0 -1 0
75 0 1 0 0.21471401822568434 -7.88921353348362 -2.6095283986349798 0 0 0
115 0 1 0 -2.2831007179881135 -8.223680904770141 -4.763597406740966 0 0 0
138 0 1 0 8.724907233478817 -3.0961362299654867 -7.606685923069684 0 0 0
225 0 1 0 4.546723833361008 -3.476364476435013 -7.041122954673015 0 0 0
227 0 1 0 -1.2044254032720276 3.8506640074658947 -4.631602850850755 0 -1 0
266 0 2 0 6.419742479106703 0.014986153830031365 8.282679052831927 0 0 -1
385 0 2 0 3.7584179292647892 1.0123253458317325 -6.330159110793926 0 0 0
404 0 2 0 1.0044472889096658 1.1468361412390085 -6.294226706111284 0 -1 0
443 0 2 0 -1.0278394260043215 -7.912160513601951 -3.733868254395317 0 0 0
604 0 2 0 2.554090005092112 6.469075157563387 0.1935611933367953 0 -1 0
609 0 2 0 5.87332129795194 -7.504966455158644 -3.213678577382179 0 0 0
659 0 2 0 5.6272612628731915 -4.410415712988077 -6.197619817635964 0 0 0
671 0 2 0 4.326543623008652 -4.591851382314417 4.4662143353369945 0 0 -1
677 0 2 0 10.140678915121125 -2.411426313334189 -7.662325762202831 0 0 0
54 0 1 0 8.676635091344847 -4.489095546560089 -3.3349365758761347 0 0 0
83 0 1 0 -17.128902417312613 -4.236906948781414 -1.4156321483228276 1 0 0
128 0 1 0 10.067008896802589 -0.9479366893166068 -4.28316004045161 0 0 0
130 0 1 0 9.217024759790041 -5.178738992272381 -6.02133360939209 0 0 0
137 0 1 0 -15.365081461192483 -6.258027813808756 1.717524377113037 1 0 0
350 0 2 0 10.334915470411143 -5.525564430065404 -7.714707997763977 0 0 0
351 0 2 0 5.577820344230742 7.566129320450558 -1.2392435112061297 0 -1 0
480 0 2 0 7.547283338632862 -4.6194739076431395 -7.265847044460752 0 0 0
508 0 2 0 -17.276947783369117 -3.820196941948889 -3.0084360254541975 1 0 0
541 0 2 0 2.4952110002677963 -3.925863721426867 -6.13179178304512 0 0 0
560 0 2 0 2.0662462297834345 -7.2030796551760705 8.230673482315787 0 0 -1
616 0 2 0 1.7652401446716597 -2.2678104693690613 2.2062339641060555 0 0 0
623 0 2 0 11.893526863850266 -4.093201406021033 8.192795512758547 0 0 -1
653 0 2 0 16.03038179355765 -4.132409146329349 -7.680137930996503 0 0 0
710 0 2 0 10.866103617765543 4.585875701172744 5.8206442185427285 0 -1 -1
26 0 1 0 12.798835070201775 -4.262336452107715 6.426260488328952 0 0 -1
38 0 1 0 -14.984190110031644 -7.459051515471065 -8.982577456725783 1 0 0
95 0 1 0 14.861426090003107 -4.820897650245735 -2.0004825735980254 0 0 0
103 0 1 0 -17.251958120704675 -7.303442781827344 -0.42704944409490647 1 0 0
126 0 1 0 -12.35344010337007 2.6565294732460383 -6.5520645821220285 1 -1 0
191 0 1 0 15.3030879408935 7.553794222497952 -4.822334454220048 0 -1 0
360 0 2 0 -14.774415293091042 1.7134667368462146 3.6019872311544665 1 0 0
417 0 2 0 12.52299774081581 -4.20541839772304 -6.881064237842174 0 0 0
419 0 2 0 12.313449383855762 -6.518000015949025 -8.51092507813298 0 0 0
424 0 2 0 8.695874066039163 -4.393617962005449 -4.8213947429224655 0 0 0
465 0 2 0 10.17734854671602 5.922818306823518 -4.768574298229818 0 -1 0
654 0 2 0 17.81974811046946 -4.223717852140112 -0.1887228163804449 0 0 0
663 0 2 0 14.32188367859415 6.755774706211691 -5.759981037200708 0 -1 0
11 0 1 0 -17.911432967449347 4.482171454905451 7.742068312226958 0 0 -1
53 0 1 0 -17.623747108711576 1.9436024234062201 -8.756786229352981 0 0 0
140 0 1 0 -15.30065797779178 -5.62590219625482 -6.669525351802994 0 0 0
236 0 1 0 -17.78117184293813 -2.5452433327633317 -3.9304752304259165 0 0 0
370 0 2 0 17.19062483017573 4.882809597645701 -2.1615872433099543 -1 0 0
485 0 2 0 -12.60860369920369 -2.841111746504697 -6.02648839174808 0 1 0
558 0 2 0 -17.36284999808313 -1.469076943523237 -2.9866922637410114 0 0 0
578 0 2 0 -16.806477306083174 -6.432249782242131 1.0045891432398997 0 0 0
602 0 2 0 17.526409662506694 -2.005278337322951 -8.799137296408183 -1 0 0
622 0 2 0 -16.57888452894077 4.016846461958403 -4.1406675391530445 0 0 0
624 0 2 0 -14.70252603575707 -3.0057283482900012 -3.7161122197993306 0 0 0
42 0 1 0 -7.058313035248656 -4.521513632778102 4.0141947724683416 0 0 0
65 0 1 0 -12.874378725206054 -2.01485452288952 0.23969648506451413 0 0 0
220 0 1 0 -8.437671139333037 -1.9959849966865173 8.072609101106531 0 0 -1
337 0 2 0 -12.274908205733928 1.7185066009222196 -7.794354158859243 0 0 0
341 0 2 0 -12.787407481655968 4.438375420853104 6.522549100089972 0 0 -1
381 0 2 0 -6.813002650322627 -2.0947247479002837 8.100719901603169 0 0 -1
446 0 2 0 -6.494371121011495 -4.3635440974521265 2.2167415468522873 0 0 0
520 0 2 0 -2.5952740056047867 0.8128223363547741 -3.970237035448779 0 0 0
539 0 2 0 -5.229735834890187 1.6196931597375794 -8.211026861100766 0 0 0
581 0 2 0 -8.186448864570533 -7.015127723390938 7.589541322620345 0 0 -1
606 0 2 0 -11.901399391656811 -7.5962984349446785 -0.7199519944235365 0 0 0
611 0 2 0 -12.771400608220807 -2.1553059992980943 6.022598487810987 0 0 -1
644 0 2 0 -10.33397322157922 -2.114941349992874 -4.347328591209363 0 0 0
703 0 2 0 -7.374398200626718 -5.701496471705142 -8.285203224141306 0 0 0
154 0 1 0 -4.698218078203586 -0.45949775038424173 -0.636148550433021 0 0 0
293 0 2 0 -5.670169679195393 1.2624649618391466 -5.979232737666672 0 0 0
394 0 2 0 -0.13934052768669786 4.6900359595237875 4.715147000647348 0 0 -1
400 0 2 0 -8.431564671000164 -4.0776958241052075 7.648888319270262 0 0 -1
401 0 2 0 -6.1055401056505145 -1.1945502078847219 -1.2927945666287262 0 0 0
406 0 2 0 0.448456713100083 -3.8828877418120733 -7.569170711695862 0 0 0
421 0 2 0 -4.306390464106032 -5.866010208487047 -5.010105730999973 0 0 0
437 0 2 0 -1.787568015479098 0.4790079581307355 -0.008688693093594154 0 0 0
468 0 2 0 -0.307727544126782 -4.898064004654753 8.411335190767417 0 0 -1
518 0 2 0 -2.8867181542525677 -7.541788832576327 -6.023482727784279 0 0 0
688 0 2 0 -4.806704861385527 0.1655302709837672 -3.812418479991227 0 0 0
690 0 2 0 -4.660770888577344 -3.3832780206015625 -2.8942451051589684 0 0 0
700 0 2 0 -8.727035258087335 6.336964404100596 -0.29694540146597026 0 0 0
41 0 1 0 2.0645382666974115 -1.447735919384099 8.833314880122428 0 0 -1
107 0 1 0 3.8479252716987973 1.2063553727814564 -0.05246308692484064 0 0 0
113 0 1 0 0.6594731874778881 1.7535891064589184 -4.314587881366658 0 0 0
129 0 1 0 -2.23312870329091 8.193965226394582 -7.890553182137746 0 -1 0
185 0 1 0 7.587485505923022 -0.19415968748962326 -6.904640294577614 0 0 0
215 0 1 0 -3.745627974874347 1.4280902756647902 -2.890574117517975 0 0 0
265 0 2 0 2.5899858025220137 -1.299866244487731 -4.019365164449776 0 0 0
329 0 2 0 6.210603342021348 4.3617813708394735 -6.841031804837044 0 0 0
330 0 2 0 1.3483279172422304 0.19134283444201083 -1.5577371579876336 0 0 0
352 0 2 0 0.32519629587680104 -0.3691155754733543 -4.184092159599436 0 0 0
420 0 2 0 -0.9323775889788847 3.6544100249412352 2.686884067958426 0 0 0
506 0 2 0 10.573352904604887 2.4050493940785898 -2.828529067120617 0 0 0
513 0 2 0 0.47099590195659136 -2.8390943170064458 5.603539361004731 0 0 -1
572 0 2 0 3.2474702422552566 -4.410834973012596 6.894331843938139 0 0 -1
610 0 2 0 3.3276891503563646 -2.0526240542273424 8.36379277898389 0 0 -1
647 0 2 0 -2.0518538722214092 7.227631017224404 -8.990730041003824 0 -1 0
7 0 1 0 -15.034198415458402 1.4555261038207647 7.704029985832371 1 0 -1
99 0 1 0 16.418052559154823 -2.4448964880272936 -7.504105828669812 0 0 0
101 0 1 0 9.281999426319981 6.257801551214454 -6.21818842636212 0 0 0
183 0 1 0 11.465622503645038 -1.9987943912997654 -6.762272490113859 0 0 0
208 0 1 0 4.118594023962587 -0.8337256892644551 -4.879558671236451 0 0 0
339 0 2 0 10.957206215274349 -2.409356855261919 -5.131395480742236 0 0 0
409 0 2 0 6.234242748257105 1.210590789870247 -3.6016991128892872 0 0 0
430 0 2 0 12.628949724499947 -0.6086784719299638 -6.715222690075367 0 0 0
551 0 2 0 3.976123409422005 3.0009705962318485 -8.371240334542739 0 0 0
564 0 2 0 12.821679146578479 -0.1208317101430722 6.438390244112322 0 0 -1
595 0 2 0 10.892807695504555 0.2721743267124767 -4.495982918888098 0 0 0
697 0 2 0 -0.037696862922422 4.821124359580879 -4.950986032327499 0 0 0
47 0 1 0 15.47839999703569 2.643486637653684 -4.011184509624555 0 0 0
56 0 1 0 -13.913219169414699 -0.5399353392901847 -3.0364944426091673 1 0 0
97 0 1 0 8.413391652349842 1.8104387666326176 -8.607644077703736 0 0 0
164 0 1 0 8.357334682104185 -8.165737566864502 8.25936155553556 0 1 -1
203 0 1 0 14.983442265453228 0.7413822354694606 -6.875223014053252 0 0 0
207 0 1 0 -14.963317296129413 4.075580592055646 -4.508525076803257 1 0 0
249 0 2 0 16.46329988018607 -5.356803779268654 -2.4082443697118747 0 0 0
252 0 2 0 17.768162994127987 -2.1284992840090506 -5.245596570979255 0 0 0
253 0 2 0 10.026420272615285 5.22146775809471 -6.88277462153289 0 0 0
280 0 2 0 -17.456205259188845 -5.377826235718622 -6.516661011542645 1 0 0
320 0 2 0 -17.7464190140938 5.696218212281091 6.637972022849348 1 0 -1
504 0 2 0 15.746347449225143 -2.2610165467731713 -1.7602102889755649 0 0 0
531 0 2 0 -13.571186014189317 -0.8571027484751292 -7.763898798531527 1 0 0
573 0 2 0 6.98118349991984 2.4404286597086853 -8.410663860113239 0 0 0
608 0 2 0 15.607580421210425 -0.8529917795129012 -7.129998986002841 0 0 0
718 0 2 0 12.691454061915806 2.091588339935865 -4.588457754508619 0 0 0
55 0 1 0 -17.83547153103282 3.4925884143047052 -3.2265317281671804 0 0 0
72 0 1 0 -10.26356427333924 4.1976061282923505 -4.389108075936287 0 0 0
122 0 1 0 -16.538557372905284 7.37244154770909 -8.955695502283938 0 0 0
145 0 1 0 -12.000710607244969 -7.138249196886055 8.285826178693084 0 1 -1
197 0 1 0 -7.929920833868589 7.880909441278883 -4.247297897101766 0 0 0
209 0 1 0 -14.124234003465292 4.601081077838705 -1.1213521021836828 0 0 0
313 0 2 0 -14.082855408727362 7.972681046126441 -5.737439787457683 0 0 0
323 0 2 0 -14.603775596327042 -5.940022377552909 -8.111516696217102 0 1 0
368 0 2 0 -13.602236588549456 6.022676311506119 -7.017120203072628 0 0 0
422 0 2 0 -16.461170203142576 -7.34818354810313 8.87282164536709 0 1 -1
568 0 2 0 -16.72501685462956 3.5658457341933985 5.142300870436692 0 0 -1
650 0 2 0 16.893626263982206 2.886411198038114 -3.981821210539305 -1 0 0
219 0 1 0 -11.262442354614825 -0.7679558884611554 -4.099036877388402 0 0 0
267 0 2 0 -5.683544547720631 6.199663942873682 -0.49376064558710314 0 0 0
302 0 2 0 -6.649763459803219 -4.215669063223995 -1.3940332722641022 0 0 0
322 0 2 0 -6.640430588502479 3.8883530117292904 -5.628218412966094 0 0 0
489 0 2 0 -13.935237952105677 6.946165947978738 3.6127873718917134 0 0 0
510 0 2 0 -14.976461722083696 6.381575308641314 6.061213199732086 0 0 -1
514 0 2 0 -2.3243743421217484 6.986420767445757 5.8347274584150295 0 0 -1
708 0 2 0 -9.589925675561199 5.189054305418673 -6.325962298114338 0 0 0
40 0 1 0 -5.420028455614335 7.224736727432074 -5.602607790679016 0 0 0
69 0 1 0 -3.2303499905245254 -5.534678453293714 -6.379618944969059 0 1 0
120 0 1 0 -4.5977307145226085 2.6578102648254647 8.152634890877204 0 0 -1
135 0 1 0 -10.216234965225107 -0.8175344493594046 -1.1317868051265179 0 0 0
218 0 1 0 -3.501527843647542 -6.947062388174031 5.823985008521017 0 1 -1
233 0 1 0 -3.3769638596912945 4.911704273428218 -6.658986168107098 0 0 0
276 0 2 0 -4.409074673316092 8.48313509966047 -5.205852579423216 0 0 0
279 0 2 0 -7.404387569597959 6.873328100053526 8.372871762990524 0 0 -1
283 0 2 0 -8.503287362392038 -8.298971867438278 -7.84482826260462 0 1 0
346 0 2 0 -4.159879417526758 6.2093747188184025 -5.838772395186366 0 0 0
500 0 2 0 -10.642465825497577 4.5892138578972785 2.091240149098566 0 0 0
545 0 2 0 -3.541570585552208 5.24589569085146 -8.052018333025536 0 0 0
632 0 2 0 -2.812695752593552 4.889594706495787 7.129118895576641 0 0 -1
664 0 2 0 -10.66392961022747 -0.1564450538442567 -2.4435903034527677 0 0 0
692 0 2 0 -8.743237998620424 -0.3542236957738418 -0.88404142593086 0 0 0
43 0 1 0 -5.734863141039206 2.839184154771313 -6.06975156329898 0 0 0
131 0 1 0 1.034313540160293 5.438691307839735 -3.9082908545815696 0 0 0
192 0 1 0 5.119607608516233 -6.185969411512744 -3.799998319942521 0 1 0
205 0 1 0 -0.2074718123803976 7.438940641616109 -5.582848479702363 0 0 0
230 0 1 0 5.987944874878659 3.538697135176463 -8.28715024573807 0 0 0
257 0 2 0 10.172226366276002 3.054132824073511 -5.334093529763213 0 0 0
521 0 2 0 2.4124629582124357 5.952122483067433 -4.604265155817952 0 0 0
559 0 2 0 6.661916499529646 2.1124913979776863 0.5931070590572836 0 0 0
628 0 2 0 -0.8604879387638418 -1.5140434970631649 -5.885460027682986 0 0 0
669 0 2 0 3.746183737196669 -6.902288389415359 -4.452021268178474 0 1 0
699 0 2 0 -3.5923761974048443 -8.837277920678758 -8.350975651957942 0 1 0
5 0 1 0 6.2813853033365366 6.207384755472325 -6.642192585863285 0 0 0
63 0 1 0 10.306573959206384 3.401041889785877 -7.17990783782863 0 0 0
79 0 1 0 9.850952262203487 5.314681284221145 7.034713523317889 0 0 -1
91 0 1 0 10.857629235939358 1.230824800716531 -1.4277675908614136 0 0 0
96 0 1 0 2.986166012712681 6.825868239128727 -5.654621546714878 0 0 0
167 0 1 0 8.15549963109393 2.5562249213893375 -0.1447701349239652 0 0 0
216 0 1 0 5.729522017022716 6.218125348949015 8.02743969718458 0 0 -1
237 0 1 0 14.126694946498564 2.106416231821282 -1.213488838811077 0 0 0
303 0 2 0 7.713855849095939 -7.357985823272821 6.393782305689277 0 1 -1
428 0 2 0 4.580643052451688 6.184203380186044 -3.2401595390231295 0 0 0
473 0 2 0 5.460140513261033 -5.257137227158802 0.09878701726008537 0 1 0
488 0 2 0 8.524678296561394 4.495183306393232 7.981085416065258 0 0 -1
640 0 2 0 4.569351644908329 -5.7378378050332515 -2.3180086321468085 0 1 0
712 0 2 0 4.533981226248235 7.243226609783535 -6.135404859562416 0 0 0
4 0 1 0 11.85931050813075 -5.196856394611517 -8.102372260723536 0 1 0
50 0 1 0 13.36270682811313 5.4809970972956 -6.086689101054921 0 0 0
60 0 1 0 10.452557433208455 8.933614762635559 -5.51628396378257 0 0 0
71 0 1 0 14.740477448269116 5.458506900742393 6.872047814575424 0 0 -1
139 0 1 0 16.74962196282625 6.633338069152214 -2.4582807903558046 0 0 0
144 0 1 0 14.075866863952202 -8.42272718920569 -3.003477047090797 0 1 0
187 0 1 0 -15.732734143113708 8.2417298876668 -6.237409798037533 1 0 0
232 0 1 0 13.607440367275665 3.1158288983790925 -7.411687534422726 0 0 0
288 0 2 0 -15.715096308248471 -3.795202318369702 -0.7468113216544031 1 0 0
343 0 2 0 16.99956274805005 1.5153265735822483 8.179208325199916 0 0 -1
441 0 2 0 7.861288916736142 6.573978872448104 -6.31195593306772 0 0 0
556 0 2 0 14.05512176190982 4.631801103522505 -7.235786196718204 0 0 0
557 0 2 0 -13.47507641337106 -7.489087358981259 7.677996372002905 1 1 -1
717 0 2 0 8.974832907886706 3.3767905566097607 -7.878967200688971 0 0 0
112 0 1 0 -11.475263253146595 -8.016645866843753 3.1269856811033887 0 0 0
147 0 1 0 -17.37004949600373 0.6038162528375685 -1.6187517017149564 0 0 0
180 0 1 0 -13.457186074293922 7.520456141839946 -0.6115646798404395 0 -1 0
212 0 1 0 -15.762156075084432 -2.125189540935199 3.6391762053676593 0 0 0
262 0 2 0 -12.378808668682302 8.769166557337227 3.0492363992236635 0 -1 0
296 0 2 0 -11.34443481791024 -5.999832655895011 -2.8137590541727366 0 0 0
327 0 2 0 -14.515463277088836 -6.481846053565223 -2.9830914492516696 0 0 0
355 0 2 0 -15.939709362199416 -7.927247917176923 -1.193412891780595 0 0 0
359 0 2 0 -10.682599684441907 -4.4476492718938685 0.41021576572171314 0 0 0
570 0 2 0 -9.809284281664704 -6.724590846575743 -5.437754799201101 0 0 0
656 0 2 0 -17.24765320622467 2.202727299603712 -2.4512193119627086 0 0 0
706 0 2 0 -13.202735090683406 5.175355042453868 1.7965865013957427 0 -1 0
9 0 1 0 -5.591527284317634 -2.1118987515191208 -8.860138760553452 0 0 0
32 0 1 0 -10.596810089396763 -0.27016195810182825 4.459429584607434 0 0 0
150 0 1 0 0.983074253490354 -5.383303753430072 -0.6878259614991968 0 0 0
151 0 1 0 -11.378052382041407 -3.391868865286261 1.4206340868434957 0 0 0
179 0 1 0 -8.594196341996033 -8.30464281941949 -2.0611844663360244 0 0 0
309 0 2 0 -3.492092744126828 -5.987750705428236 -2.01611395295817 0 0 0
338 0 2 0 -8.390232364146526 -6.060891897570061 -0.08133399968158826 0 0 0
357 0 2 0 -10.993218319539146 -6.296986820872443 1.8579068534058845 0 0 0
466 0 2 0 -12.165290249467423 0.38777648436095113 4.204160227984535 0 0 0
475 0 2 0 -5.298943370694033 -6.14008228236398 -0.42449452450138664 0 0 0
540 0 2 0 -9.521567656552039 -8.410257049108624 0.18718104739790042 0 0 0
552 0 2 0 -12.084116612227847 -2.7664146304515165 2.990931738862359 0 0 0
603 0 2 0 -7.751765199830706 8.873626039468595 -5.527412569142132 0 -1 0
633 0 2 0 -4.930616174017033 -4.97816390652805 6.905251780350909 0 0 0
695 0 2 0 -2.4966137368727246 -0.26906578821606286 5.039548547577247 0 0 0
701 0 2 0 -8.261647319746555 7.50663171216755 4.316854433195219 0 -1 0
17 0 1 0 -0.5090256101098961 -2.9465631197359463 -1.8603576677095044 0 0 0
64 0 1 0 -1.7254307930270485 -0.12764238484383875 3.535321950979086 0 0 0
204 0 1 0 1.7260026830987951 -7.956603149272169 2.1214879667069844 0 0 0
380 0 2 0 -7.117748670543141 -5.92919661690784 5.102951777087421 0 0 0
390 0 2 0 -3.3052437206405694 -1.2693834437151836 -6.118961383651013 0 0 0
435 0 2 0 -3.84042859211312 -6.377955140109699 4.225995917050412 0 0 0
455 0 2 0 3.0494630638843914 -3.505843980663134 0.3700447675263773 0 0 0
507 0 2 0 -1.232666445925539 -2.263816748221704 -0.7224554976213139 0 0 0
542 0 2 0 6.477469573289487 -4.926433026469102 6.992795730555948 0 0 0
555 0 2 0 -4.120972484432807 -8.368319058813183 -2.2363838658784863 0 0 0
577 0 2 0 0.9454364307504173 -3.83286198518734 -4.018396436298531 0 0 0
588 0 2 0 -2.683303468128147 7.2479920909337014 -3.61566117724864 0 -1 0
631 0 2 0 -7.586817826560179 8.041486947980058 1.5468068239327835 0 -1 0
649 0 2 0 2.3029808366338016 -6.603685680983232 1.8766228557321554 0 0 0
665 0 2 0 -3.1688120172818643 -5.590482916353537 1.4216979165327215 0 0 0
104 0 1 0 6.868806512277089 -6.768573277567547 0.41204382757347396 0 0 0
200 0 1 0 0.05625978824071987 7.189937853317619 -1.4801263466052894 0 -1 0
229 0 1 0 8.353988584340147 -2.8141575525814377 0.9000670558873661 0 0 0
275 0 2 0 -0.833870111891094 2.3933373078868247 -4.709786875783836 0 -1 0
285 0 2 0 7.620775861969862 -6.390756150243904 -0.8155694473963119 0 0 0
316 0 2 0 0.12929960145004535 -6.834180709915876 -1.2241561131395353 0 0 0
364 0 2 0 1.521998425108906 8.867916008706189 3.356304705441882 0 -1 0
445 0 2 0 8.383914043191146 0.07626794545691011 3.9317835034076616 0 0 0
593 0 2 0 2.4213398671166617 -5.354065660441237 -1.2214280251601664 0 0 0
626 0 2 0 0.23687398459030276 -4.003034002157604 3.276207043561465 0 0 0
661 0 2 0 8.09960917707355 -0.9541117066712382 -5.300234151495232 0 0 0
10 0 1 0 7.844413235536479 -2.157157698846418 -1.9717669592918114 0 0 0
48 0 1 0 3.617665655729735 -5.02265075592565 -0.22208725276963426 0 0 0
57 0 1 0 11.010162732324142 2.137313046071838 -4.2526970283141985 0 0 0
92 0 1 0 10.052223576002694 -5.000062763172328 0.587090579033233 0 0 0
143 0 1 0 8.057895455147953 8.484957240682593 -3.386614542384556 0 -1 0
165 0 1 0 11.522215688145598 -8.065998669788192 1.5017509747038877 0 0 0
319 0 2 0 7.024829562366177 -0.8218109761063641 -1.9633678353492654 0 0 0
395 0 2 0 16.327219636488284 -8.170837743723 8.020652183327934 0 0 0
501 0 2 0 8.388089972627391 -2.3665199699947244 -0.5533002020247693 0 0 0
563 0 2 0 -2.8167706387435287 0.31223347844631194 2.5047712595640177 0 0 0
565 0 2 0 9.99201483191515 -6.400833666499661 1.2654642299481336 0 0 0
693 0 2 0 11.872479865999594 4.217892311842086 -2.0100139915030852 0 -1 0
716 0 2 0 8.231289945691126 -8.240624934022506 -2.330119689951062 0 0 0
20 0 1 0 -10.906575453120835 -6.428194165460433 0.3894714421721375 1 0 0
29 0 1 0 17.16475780215906 -5.999236570573148 -3.557320925184683 0 0 0
45 0 1 0 -16.15547798024217 -8.288838786709606 5.304995695787051 1 0 0
157 0 1 0 15.904699767854368 -8.283994723139005 4.032837011187997 0 0 0
181 0 1 0 -14.437134182526446 -4.306499738292534 0.008362153561707684 1 0 0
214 0 1 0 15.007590326928767 -7.83402228314167 -6.587978781123105 0 0 0
235 0 1 0 9.471799482309573 -0.48313439379450357 2.860072035923689 0 0 0
238 0 1 0 11.608487027651647 -1.9912483574016056 0.066692765058091 0 0 0
326 0 2 0 16.528164045532684 -4.0733634344958585 2.361467601001852 0 0 0
382 0 2 0 9.140788096195376 0.6808773987183802 1.7330205177439248 0 0 0
522 0 2 0 7.176940663513428 -3.558440739625606 -2.3858451436568235 0 0 0
618 0 2 0 14.954322472860778 -7.391748615430769 -2.143249814377677 0 0 0
682 0 2 0 -13.21603000951533 -4.859261037492798 -1.4302656019671378 1 0 0
21 0 1 0 -16.038789293925046 1.8265012791582296 4.815974051311532 0 0 0
70 0 1 0 17.11295869390878 -2.4832061899943403 3.1951281147296897 -1 0 0
76 0 1 0 -13.479635647561658 6.659354463025023 -5.680742820884287 0 0 0
172 0 1 0 -14.916300833154985 0.6590633860213736 0.03847444125339129 0 0 0
244 0 2 0 17.39911877527414 -0.0031964590578958856 -0.4712914126649133 -1 0 0
256 0 2 0 -8.574528601115919 3.130560748311432 3.31828374017595 0 0 0
324 0 2 0 -10.666179617570055 0.3308143979308531 0.015346494945708609 0 0 0
502 0 2 0 16.39209060056133 6.8087984452036 -3.9215226159152943 -1 0 0
537 0 2 0 -7.133856775599632 0.6407384143516606 3.7938215578371253 0 0 0
574 0 2 0 -15.219770445611273 -6.6963646159481485 -5.6698205459037165 0 0 0
591 0 2 0 10.958689054483123 -0.8672609918003367 3.458381346177454 -1 0 0
625 0 2 0 -9.412430081820354 2.8141659285712186 -4.027459479690767 0 0 0
52 0 1 0 -13.175716652395298 -5.5006093157680604 -2.9542314865119454 0 0 0
102 0 1 0 -11.838312450736641 1.2931311480464673 0.4923919388859185 0 0 0
123 0 1 0 -7.899230355888126 -1.1324391595855656 1.5708480854605502 0 0 0
132 0 1 0 -7.4903026258496395 -2.7860207421424326 -1.1802638001140442 0 0 0
335 0 2 0 -14.547833345919432 3.671941996803025 -3.027978244803859 0 0 0
426 0 2 0 -8.123180547519972 -2.2760460644136655 0.39146978997506515 0 0 0
444 0 2 0 -3.31236468474133 -3.8754820352992305 -0.45341710608219227 0 0 0
469 0 2 0 -6.707810586375793 1.6610679671742101 -0.8267502006256273 0 0 0
530 0 2 0 -7.950568389236429 2.6824457247728963 5.573856813785055 0 0 -1
584 0 2 0 -8.678453070368382 -3.870486231971674 3.918358876309149 0 0 0
642 0 2 0 -12.53960406995176 2.23395903789151 6.345598406034666 0 0 0
673 0 2 0 -8.059446335360397 -2.6101863078527416 -6.412678941056965 0 0 0
694 0 2 0 -8.667927402891364 -2.831166134931015 -2.5479638682259886 0 0 0
696 0 2 0 -3.4588710437808956 2.2234412103893697 4.197187896697838 0 0 0
49 0 1 0 2.0228547694799937 -1.0305355328014527 -2.5971374911125125 0 0 0
77 0 1 0 -3.3827516539109928 -4.401352894218013 -1.8963769694407142 0 0 0
169 0 1 0 0.0812812566441321 -5.391808716016974 -6.941594922288036 0 0 0
258 0 2 0 1.4379262753206958 -2.314855305590544 -2.1073420506889637 0 0 0
298 0 2 0 -0.922070568673196 1.245350835126404 3.853337472179208 0 0 0
300 0 2 0 -10.825436043739543 1.9950550217479128 1.6866972942934044 0 0 0
312 0 2 0 -2.6797289541327327 6.892462221713696 1.405135357215687 0 0 0
344 0 2 0 -3.65883698397534 -1.1095202926062058 0.37560728092603335 0 0 0
413 0 2 0 -0.43098120864033773 2.0441146499661995 6.836335277747443 0 0 0
472 0 2 0 -7.098423360481948 -1.0770754147711104 -4.782217932955728 0 0 0
674 0 2 0 4.202415685689791 -3.561325776955616 -4.327687749545898 0 0 0
18 0 1 0 7.865546812311749 1.7158131953750173 4.132920123776168 0 0 0
182 0 1 0 1.341200904723864 -2.0517071552776054 3.616245650314509 0 0 0
213 0 1 0 1.126323738644777 1.7528512449097264 -0.3785278819319024 0 0 0
239 0 1 0 6.011894458650607 5.848427349280873 1.8044210217270922 0 0 0
248 0 2 0 4.494511606102818 1.335634193453086 1.4159189533912901 0 0 0
291 0 2 0 -3.7550947210222456 3.261273687927712 -2.5293631795321776 0 0 0
305 0 2 0 -0.9282777657611598 -1.6219920687487401 3.7649433348177093 0 0 0
503 0 2 0 4.606801627897306 0.49230862851115786 -1.3574016230884305 0 0 0
579 0 2 0 2.755803439881157 2.0966967158300323 -0.9522578767884007 0 0 0
662 0 2 0 -1.7087023679244695 -3.616862812396007 -2.689876758959218 0 0 0
15 0 1 0 2.9500901824424632 -1.8393365145364036 1.0072007667706497 0 0 0
80 0 1 0 12.527652687851663 2.524458707601898 2.101217855166161 0 0 0
87 0 1 0 2.6170324689875204 -3.6248902096850264 -4.564024002912312 0 0 0
168 0 1 0 5.52118449238287 0.012484795352651951 -2.58601152584878 0 0 0
171 0 1 0 14.519323088209054 -1.5544083655559204 -0.9418833334429275 0 0 0
196 0 1 0 11.96924122959231 -0.35687862261272585 2.2068678957924632 0 0 0
272 0 2 0 14.513566590345395 1.1611386723951294 7.509630811647931 0 0 0
308 0 2 0 4.919089294801689 -0.7576455362226281 -3.6727190120653175 0 0 0
361 0 2 0 7.372504683839267 -7.7938144492803865 -8.50125485971154 0 1 0
427 0 2 0 3.272622112842536 6.34126546225572 3.4034520202213767 0 0 0
534 0 2 0 9.647295537533884 -1.7000322788420392 -3.09714039950046 0 0 0
590 0 2 0 10.473470413738868 -0.7829256618225909 -0.19314873718775127 0 0 0
715 0 2 0 11.841590512592864 2.142243922524547 7.418126491671116 0 0 0
22 0 1 0 11.701168969610892 5.732952254867363 -3.4927315359085798 0 0 0
299 0 2 0 12.90768705915846 -1.8086898723497113 -1.0107266987327457 0 0 0
388 0 2 0 14.827584437744662 8.645788747458926 3.3579569778253386 0 -1 0
436 0 2 0 -14.736673905543729 -0.5766093652756729 2.942132789218236 1 0 0
456 0 2 0 16.869503448091578 -1.366910946545072 1.7030562318196047 0 0 0
458 0 2 0 12.077592100131566 1.0815086515249726 1.500679141372737 0 0 0
486 0 2 0 10.607470740164208 8.326048579666226 -7.119952572360237 0 0 0
536 0 2 0 -15.655459352184494 -6.76281779185358 3.1789625563858195 1 0 0
538 0 2 0 -17.331166276621516 -5.800472498381061 -1.726296254324308 1 0 0
596 0 2 0 -13.912060446741787 -5.9037491442162455 0.8223575497115649 1 0 0
600 0 2 0 -17.723482560889952 1.5240373032373729 4.178851004484098 1 0 0
683 0 2 0 -11.93164079192771 6.856896326357973 -5.156890382881621 1 0 0
142 0 1 0 -13.830799206124784 8.350234725124704 2.345550293473712 0 0 0
162 0 1 0 -13.681083982399837 0.5122513813491171 3.5385549805182204 0 0 0
321 0 2 0 -17.411134934191104 7.380025199905568 1.943025851230407 0 0 0
376 0 2 0 17.318379083960576 5.253727012676425 3.181207070489377 -1 0 0
387 0 2 0 -14.565019305803212 5.773275606405172 -4.947368947282986 0 0 0
410 0 2 0 14.205857140402204 -6.963554051603328 -5.598328747519707 -1 1 0
528 0 2 0 -17.201443915337258 5.662308122443506 8.885724279621144 0 0 -1